LAMMPS data file via EPM generator by Leo-LYY's code
3600 atoms
3 atom types
3570 bonds
1 bond types
4710 angles
2 angle types
4650 dihedrals
1 dihedral types
1170 impropers
1 improper types

0 45.7355 xlo xhi
0 45.7355 ylo yhi
0 45.7355 zlo zhi

Masses

1 13.019
2 14.027
3 15.035

Atoms

1 1 3 33.7571 34.8461 23.9567
2 1 1 32.6682 35.935 23.9567
3 1 3 33.7571 37.024 23.9567
4 1 2 31.5793 35.935 22.8677
5 1 1 30.4903 35.935 21.7788
6 1 3 29.4014 35.935 22.8677
7 1 2 30.4903 37.024 22.8677
8 1 1 30.4903 35.935 23.9567
9 1 3 31.5793 34.8461 23.9567
10 1 2 30.4903 34.8461 25.0456
11 1 1 29.4014 34.8461 26.1346
12 1 3 30.4903 33.7571 26.1346
13 1 2 29.4014 33.7571 27.2235
14 1 1 30.4903 34.8461 27.2235
15 1 3 30.4903 35.935 28.3124
16 1 2 30.4903 35.935 26.1346
17 1 1 29.4014 35.935 27.2235
18 1 3 28.3124 35.935 28.3124
19 1 2 29.4014 37.024 26.1346
20 1 1 28.3124 37.024 25.0456
21 1 3 29.4014 38.1129 25.0456
22 1 2 27.2235 37.024 23.9567
23 1 1 27.2235 35.935 22.8677
24 1 3 26.1346 35.935 23.9567
25 1 2 28.3124 37.024 22.8677
26 1 1 29.4014 37.024 21.7788
27 1 3 28.3124 38.1129 21.7788
28 1 2 29.4014 35.935 20.6899
29 1 1 30.4903 35.935 19.6009
30 1 3 31.5793 37.024 19.6009
31 1 2 30.4903 37.024 18.512
32 1 1 30.4903 35.935 17.423
33 1 3 29.4014 35.935 16.3341
34 1 2 29.4014 37.024 17.423
35 1 1 29.4014 35.935 18.512
36 1 3 29.4014 37.024 19.6009
37 1 2 28.3124 35.935 19.6009
38 1 1 27.2235 35.935 18.512
39 1 3 27.2235 37.024 19.6009
40 1 2 26.1346 35.935 19.6009
41 1 1 26.1346 37.024 18.512
42 1 3 26.1346 35.935 17.423
43 1 2 25.0456 35.935 18.512
44 1 1 23.9567 37.024 18.512
45 1 3 22.8677 38.1129 18.512
46 1 2 22.8677 37.024 17.423
47 1 1 21.7788 37.024 16.3341
48 1 3 21.7788 38.1129 17.423
49 1 2 21.7788 38.1129 15.2452
50 1 1 20.6899 39.2018 15.2452
51 1 3 21.7788 39.2018 14.1562
52 1 2 21.7788 39.2018 16.3341
53 1 1 21.7788 40.2908 17.423
54 1 3 22.8677 39.2018 17.423
55 1 2 22.8677 41.3797 17.423
56 1 1 23.9567 40.2908 17.423
57 1 3 23.9567 39.2018 16.3341
58 1 2 23.9567 41.3797 18.512
59 1 1 23.9567 42.4687 17.423
60 1 3 25.0456 41.3797 17.423
61 1 2 22.8677 43.5576 17.423
62 1 1 22.8677 44.6465 18.512
63 1 3 21.7788 44.6465 19.6009
64 1 2 23.9567 45.7355 18.512
65 1 1 25.0456 46.8244 18.512
66 1 3 23.9567 47.9134 18.512
67 1 2 25.0456 45.7355 17.423
68 1 1 26.1346 46.8244 17.423
69 1 3 26.1346 47.9134 18.512
70 1 2 27.2235 46.8244 18.512
71 1 1 28.3124 45.7355 18.512
72 1 3 29.4014 44.6465 18.512
73 1 2 28.3124 44.6465 17.423
74 1 1 27.2235 44.6465 16.3341
75 1 3 27.2235 43.5576 15.2452
76 1 2 28.3124 44.6465 15.2452
77 1 1 29.4014 45.7355 15.2452
78 1 3 29.4014 46.8244 16.3341
79 1 2 29.4014 44.6465 14.1562
80 1 1 28.3124 43.5576 14.1562
81 1 3 28.3124 42.4687 13.0673
82 1 2 27.2235 42.4687 14.1562
83 1 1 28.3124 42.4687 15.2452
84 1 3 27.2235 41.3797 15.2452
85 1 2 28.3124 41.3797 14.1562
86 1 1 27.2235 41.3797 13.0673
87 1 3 27.2235 40.2908 14.1562
88 1 2 27.2235 42.4687 11.9783
89 1 1 26.1346 41.3797 11.9783
90 1 3 26.1346 42.4687 13.0673
91 1 2 27.2235 41.3797 10.8894
92 1 1 28.3124 40.2908 10.8894
93 1 3 27.2235 39.2018 10.8894
94 1 2 28.3124 39.2018 9.80046
95 1 1 29.4014 39.2018 10.8894
96 1 3 29.4014 38.1129 9.80046
97 1 2 28.3124 38.1129 10.8894
98 1 1 27.2235 37.024 10.8894
99 1 3 28.3124 35.935 10.8894
100 1 2 26.1346 38.1129 10.8894
101 1 1 26.1346 37.024 9.80046
102 1 3 27.2235 38.1129 9.80046
103 1 2 27.2235 37.024 8.71152
104 1 1 26.1346 37.024 7.62258
105 1 3 27.2235 38.1129 7.62258
106 1 2 26.1346 38.1129 8.71152
107 1 1 25.0456 39.2018 8.71152
108 1 3 23.9567 39.2018 9.80046
109 1 2 23.9567 40.2908 8.71152
110 1 1 22.8677 41.3797 8.71152
111 1 3 21.7788 41.3797 9.80046
112 1 2 21.7788 41.3797 7.62258
113 1 1 22.8677 42.4687 7.62258
114 1 3 21.7788 42.4687 8.71152
115 1 2 23.9567 43.5576 7.62258
116 1 1 23.9567 42.4687 8.71152
117 1 3 23.9567 41.3797 9.80046
118 1 2 25.0456 42.4687 9.80046
119 1 2 25.0456 43.5576 10.8894
120 1 3 23.9567 42.4687 10.8894
121 2 3 8.71152 43.5576 35.935
122 2 1 8.71152 44.6465 34.8461
123 2 3 7.62258 45.7355 34.8461
124 2 2 9.80046 44.6465 35.935
125 2 1 9.80046 43.5576 34.8461
126 2 3 9.80046 42.4687 33.7571
127 2 2 10.8894 42.4687 34.8461
128 2 1 11.9783 43.5576 34.8461
129 2 3 13.0673 42.4687 34.8461
130 2 2 13.0673 43.5576 33.7571
131 2 1 11.9783 44.6465 33.7571
132 2 3 10.8894 44.6465 32.6682
133 2 2 11.9783 45.7355 32.6682
134 2 1 10.8894 46.8244 32.6682
135 2 3 9.80046 47.9134 32.6682
136 2 2 9.80046 45.7355 32.6682
137 2 1 9.80046 46.8244 33.7571
138 2 3 8.71152 46.8244 32.6682
139 2 2 10.8894 47.9134 33.7571
140 2 1 10.8894 46.8244 34.8461
141 2 3 10.8894 45.7355 35.935
142 2 2 9.80046 46.8244 35.935
143 2 1 9.80046 47.9134 37.024
144 2 3 10.8894 47.9134 35.935
145 2 2 10.8894 47.9134 38.1129
146 2 1 10.8894 49.0023 39.2018
147 2 3 11.9783 49.0023 40.2908
148 2 2 10.8894 50.0912 40.2908
149 2 1 11.9783 51.1802 40.2908
150 2 3 10.8894 51.1802 41.3797
151 2 2 10.8894 51.1802 39.2018
152 2 1 11.9783 51.1802 38.1129
153 2 3 10.8894 51.1802 37.024
154 2 2 13.0673 52.2691 38.1129
155 2 1 13.0673 53.3581 37.024
156 2 3 11.9783 53.3581 38.1129
157 2 2 11.9783 52.2691 37.024
158 2 1 13.0673 52.2691 35.935
159 2 3 14.1562 52.2691 37.024
160 2 2 14.1562 53.3581 35.935
161 2 1 13.0673 53.3581 34.8461
162 2 3 14.1562 52.2691 34.8461
163 2 2 14.1562 54.447 34.8461
164 2 1 15.2452 53.3581 34.8461
165 2 3 16.3341 53.3581 35.935
166 2 2 15.2452 52.2691 35.935
167 2 1 16.3341 52.2691 34.8461
168 2 3 16.3341 51.1802 35.935
169 2 2 17.423 52.2691 33.7571
170 2 1 17.423 53.3581 34.8461
171 2 3 16.3341 53.3581 33.7571
172 2 2 17.423 54.447 33.7571
173 2 1 16.3341 54.447 32.6682
174 2 3 16.3341 53.3581 31.5793
175 2 2 16.3341 55.5359 33.7571
176 2 1 17.423 55.5359 32.6682
177 2 3 18.512 55.5359 31.5793
178 2 2 18.512 55.5359 33.7571
179 2 1 18.512 56.6249 32.6682
180 2 3 17.423 57.7138 32.6682
181 2 2 18.512 57.7138 33.7571
182 2 1 19.6009 56.6249 33.7571
183 2 3 19.6009 57.7138 32.6682
184 2 2 20.6899 55.5359 33.7571
185 2 1 21.7788 55.5359 32.6682
186 2 3 22.8677 55.5359 31.5793
187 2 2 22.8677 56.6249 32.6682
188 2 1 23.9567 57.7138 32.6682
189 2 3 25.0456 56.6249 32.6682
190 2 2 22.8677 58.8028 32.6682
191 2 1 23.9567 59.8917 32.6682
192 2 3 23.9567 58.8028 33.7571
193 2 2 22.8677 59.8917 31.5793
194 2 1 22.8677 60.9806 30.4903
195 2 3 23.9567 59.8917 30.4903
196 2 2 22.8677 62.0696 29.4014
197 2 1 21.7788 63.1585 29.4014
198 2 3 20.6899 63.1585 28.3124
199 2 2 21.7788 62.0696 28.3124
200 2 1 21.7788 60.9806 27.2235
201 2 3 20.6899 59.8917 27.2235
202 2 2 20.6899 60.9806 26.1346
203 2 1 21.7788 62.0696 26.1346
204 2 3 22.8677 62.0696 25.0456
205 2 2 21.7788 63.1585 27.2235
206 2 1 21.7788 64.2475 26.1346
207 2 3 20.6899 64.2475 27.2235
208 2 2 22.8677 65.3364 26.1346
209 2 1 21.7788 65.3364 25.0456
210 2 3 21.7788 66.4253 26.1346
211 2 2 22.8677 64.2475 25.0456
212 2 1 23.9567 64.2475 26.1346
213 2 3 25.0456 65.3364 26.1346
214 2 2 23.9567 65.3364 25.0456
215 2 1 23.9567 64.2475 23.9567
216 2 3 25.0456 65.3364 23.9567
217 2 2 23.9567 65.3364 22.8677
218 2 1 22.8677 65.3364 23.9567
219 2 3 22.8677 66.4253 25.0456
220 2 2 21.7788 65.3364 22.8677
221 2 1 21.7788 66.4253 21.7788
222 2 3 22.8677 66.4253 20.6899
223 2 2 20.6899 65.3364 21.7788
224 2 1 20.6899 64.2475 22.8677
225 2 3 20.6899 63.1585 23.9567
226 2 2 19.6009 64.2475 21.7788
227 2 1 19.6009 63.1585 22.8677
228 2 3 18.512 63.1585 23.9567
229 2 2 19.6009 62.0696 21.7788
230 2 1 18.512 60.9806 21.7788
231 2 3 19.6009 60.9806 22.8677
232 2 2 17.423 59.8917 21.7788
233 2 1 18.512 59.8917 22.8677
234 2 3 17.423 60.9806 22.8677
235 2 2 18.512 58.8028 23.9567
236 2 1 19.6009 59.8917 23.9567
237 2 3 18.512 59.8917 25.0456
238 2 2 19.6009 58.8028 25.0456
239 2 2 20.6899 58.8028 23.9567
240 2 3 20.6899 59.8917 25.0456
241 3 3 30.4903 39.2018 22.8677
242 3 1 31.5793 38.1129 22.8677
243 3 3 32.6682 37.024 22.8677
244 3 2 32.6682 38.1129 23.9567
245 3 1 33.7571 38.1129 22.8677
246 3 3 33.7571 39.2018 23.9567
247 3 2 34.8461 39.2018 22.8677
248 3 1 35.935 40.2908 22.8677
249 3 3 34.8461 40.2908 23.9567
250 3 2 37.024 41.3797 22.8677
251 3 1 35.935 41.3797 23.9567
252 3 3 37.024 41.3797 25.0456
253 3 2 35.935 42.4687 22.8677
254 3 1 37.024 42.4687 23.9567
255 3 3 38.1129 42.4687 22.8677
256 3 2 37.024 43.5576 22.8677
257 3 1 38.1129 44.6465 22.8677
258 3 3 39.2018 45.7355 22.8677
259 3 2 39.2018 44.6465 21.7788
260 3 1 39.2018 45.7355 20.6899
261 3 3 40.2908 45.7355 21.7788
262 3 2 40.2908 45.7355 19.6009
263 3 1 41.3797 44.6465 19.6009
264 3 3 42.4687 44.6465 18.512
265 3 2 40.2908 44.6465 20.6899
266 3 1 39.2018 44.6465 19.6009
267 3 3 40.2908 44.6465 18.512
268 3 2 39.2018 45.7355 18.512
269 3 1 38.1129 44.6465 18.512
270 3 3 38.1129 45.7355 19.6009
271 3 2 38.1129 43.5576 17.423
272 3 1 39.2018 42.4687 17.423
273 3 3 38.1129 42.4687 18.512
274 3 2 39.2018 43.5576 16.3341
275 3 1 38.1129 44.6465 16.3341
276 3 3 39.2018 44.6465 15.2452
277 3 2 38.1129 45.7355 17.423
278 3 1 38.1129 46.8244 18.512
279 3 3 37.024 46.8244 19.6009
280 3 2 37.024 47.9134 18.512
281 3 1 35.935 47.9134 17.423
282 3 3 34.8461 49.0023 17.423
283 3 2 35.935 46.8244 18.512
284 3 1 37.024 46.8244 17.423
285 3 3 37.024 45.7355 18.512
286 3 2 38.1129 46.8244 16.3341
287 3 1 39.2018 46.8244 17.423
288 3 3 39.2018 45.7355 16.3341
289 3 2 40.2908 46.8244 18.512
290 3 1 40.2908 45.7355 17.423
291 3 3 40.2908 44.6465 16.3341
292 3 2 41.3797 45.7355 18.512
293 3 1 41.3797 46.8244 19.6009
294 3 3 41.3797 47.9134 18.512
295 3 2 41.3797 45.7355 20.6899
296 3 1 42.4687 45.7355 21.7788
297 3 3 42.4687 44.6465 20.6899
298 3 2 43.5576 45.7355 22.8677
299 3 1 44.6465 45.7355 23.9567
300 3 3 45.7355 45.7355 25.0456
301 3 2 44.6465 46.8244 22.8677
302 3 1 44.6465 45.7355 21.7788
303 3 3 43.5576 44.6465 21.7788
304 3 2 43.5576 45.7355 20.6899
305 3 1 43.5576 44.6465 19.6009
306 3 3 43.5576 45.7355 18.512
307 3 2 42.4687 45.7355 19.6009
308 3 1 42.4687 46.8244 18.512
309 3 3 42.4687 47.9134 19.6009
310 3 2 43.5576 47.9134 18.512
311 3 1 42.4687 47.9134 17.423
312 3 3 42.4687 49.0023 18.512
313 3 2 42.4687 46.8244 16.3341
314 3 1 42.4687 45.7355 17.423
315 3 3 41.3797 44.6465 17.423
316 3 2 42.4687 44.6465 16.3341
317 3 1 43.5576 45.7355 16.3341
318 3 3 43.5576 46.8244 17.423
319 3 2 44.6465 44.6465 16.3341
320 3 1 43.5576 44.6465 15.2452
321 3 3 42.4687 44.6465 14.1562
322 3 2 44.6465 43.5576 15.2452
323 3 1 44.6465 42.4687 14.1562
324 3 3 43.5576 43.5576 14.1562
325 3 2 45.7355 42.4687 13.0673
326 3 1 46.8244 41.3797 13.0673
327 3 3 45.7355 41.3797 14.1562
328 3 2 47.9134 41.3797 11.9783
329 3 1 47.9134 40.2908 13.0673
330 3 3 49.0023 40.2908 14.1562
331 3 2 49.0023 39.2018 13.0673
332 3 1 50.0912 38.1129 13.0673
333 3 3 49.0023 38.1129 11.9783
334 3 2 50.0912 39.2018 14.1562
335 3 1 51.1802 38.1129 14.1562
336 3 3 50.0912 37.024 14.1562
337 3 2 52.2691 39.2018 14.1562
338 3 1 52.2691 40.2908 15.2452
339 3 3 53.3581 39.2018 15.2452
340 3 2 52.2691 41.3797 16.3341
341 3 1 52.2691 42.4687 17.423
342 3 3 51.1802 42.4687 16.3341
343 3 2 53.3581 43.5576 17.423
344 3 1 54.447 43.5576 16.3341
345 3 3 54.447 44.6465 15.2452
346 3 2 55.5359 43.5576 17.423
347 3 1 55.5359 42.4687 16.3341
348 3 3 56.6249 41.3797 16.3341
349 3 2 56.6249 42.4687 17.423
350 3 1 57.7138 43.5576 17.423
351 3 3 57.7138 42.4687 18.512
352 3 2 57.7138 44.6465 18.512
353 3 1 58.8028 45.7355 18.512
354 3 3 58.8028 46.8244 19.6009
355 3 2 59.8917 45.7355 17.423
356 3 1 60.9806 46.8244 17.423
357 3 3 60.9806 47.9134 18.512
358 3 2 60.9806 45.7355 18.512
359 3 2 62.0696 46.8244 18.512
360 3 3 62.0696 45.7355 19.6009
361 4 3 23.9567 11.9783 13.0673
362 4 1 22.8677 11.9783 11.9783
363 4 3 23.9567 13.0673 11.9783
364 4 2 21.7788 11.9783 10.8894
365 4 1 22.8677 10.8894 10.8894
366 4 3 21.7788 10.8894 11.9783
367 4 2 21.7788 10.8894 9.80046
368 4 1 20.6899 10.8894 10.8894
369 4 3 20.6899 11.9783 11.9783
370 4 2 20.6899 9.80046 11.9783
371 4 1 19.6009 10.8894 11.9783
372 4 3 18.512 11.9783 11.9783
373 4 2 19.6009 11.9783 10.8894
374 4 1 18.512 11.9783 9.80046
375 4 3 19.6009 13.0673 9.80046
376 4 2 17.423 10.8894 9.80046
377 4 1 16.3341 10.8894 10.8894
378 4 3 15.2452 11.9783 10.8894
379 4 2 16.3341 11.9783 9.80046
380 4 1 15.2452 11.9783 8.71152
381 4 3 14.1562 11.9783 9.80046
382 4 2 16.3341 11.9783 7.62258
383 4 1 16.3341 13.0673 8.71152
384 4 3 16.3341 14.1562 9.80046
385 4 2 15.2452 13.0673 9.80046
386 4 1 14.1562 13.0673 10.8894
387 4 3 14.1562 11.9783 11.9783
388 4 2 13.0673 13.0673 9.80046
389 4 1 13.0673 14.1562 10.8894
390 4 3 14.1562 14.1562 11.9783
391 4 2 11.9783 14.1562 9.80046
392 4 1 11.9783 13.0673 8.71152
393 4 3 11.9783 14.1562 7.62258
394 4 2 13.0673 14.1562 8.71152
395 4 1 14.1562 14.1562 9.80046
396 4 3 14.1562 15.2452 10.8894
397 4 2 14.1562 13.0673 8.71152
398 4 1 15.2452 14.1562 8.71152
399 4 3 16.3341 15.2452 8.71152
400 4 2 14.1562 15.2452 8.71152
401 4 1 15.2452 15.2452 7.62258
402 4 3 15.2452 14.1562 6.53364
403 4 2 15.2452 16.3341 8.71152
404 4 1 15.2452 15.2452 9.80046
405 4 3 16.3341 15.2452 10.8894
406 4 2 15.2452 16.3341 10.8894
407 4 1 15.2452 17.423 11.9783
408 4 3 14.1562 17.423 10.8894
409 4 2 16.3341 18.512 11.9783
410 4 1 15.2452 19.6009 11.9783
411 4 3 14.1562 19.6009 10.8894
412 4 2 16.3341 20.6899 11.9783
413 4 1 17.423 21.7788 11.9783
414 4 3 17.423 22.8677 10.8894
415 4 2 16.3341 22.8677 11.9783
416 4 1 15.2452 23.9567 11.9783
417 4 3 15.2452 22.8677 10.8894
418 4 2 16.3341 25.0456 11.9783
419 4 1 16.3341 26.1346 13.0673
420 4 3 15.2452 27.2235 13.0673
421 4 2 17.423 26.1346 14.1562
422 4 1 17.423 25.0456 13.0673
423 4 3 18.512 25.0456 14.1562
424 4 2 18.512 23.9567 13.0673
425 4 1 19.6009 23.9567 14.1562
426 4 3 19.6009 22.8677 13.0673
427 4 2 20.6899 25.0456 14.1562
428 4 1 21.7788 25.0456 15.2452
429 4 3 21.7788 26.1346 16.3341
430 4 2 22.8677 25.0456 16.3341
431 4 1 23.9567 25.0456 15.2452
432 4 3 23.9567 23.9567 16.3341
433 4 2 22.8677 25.0456 14.1562
434 4 1 23.9567 26.1346 14.1562
435 4 3 25.0456 26.1346 13.0673
436 4 2 25.0456 25.0456 14.1562
437 4 1 26.1346 25.0456 13.0673
438 4 3 27.2235 25.0456 11.9783
439 4 2 27.2235 25.0456 14.1562
440 4 1 28.3124 23.9567 14.1562
441 4 3 28.3124 25.0456 13.0673
442 4 2 29.4014 23.9567 15.2452
443 4 1 28.3124 23.9567 16.3341
444 4 3 27.2235 23.9567 15.2452
445 4 2 29.4014 25.0456 16.3341
446 4 1 29.4014 26.1346 17.423
447 4 3 30.4903 26.1346 18.512
448 4 2 28.3124 25.0456 17.423
449 4 1 29.4014 25.0456 18.512
450 4 3 29.4014 23.9567 19.6009
451 4 2 29.4014 23.9567 17.423
452 4 1 30.4903 23.9567 18.512
453 4 3 31.5793 23.9567 17.423
454 4 2 29.4014 22.8677 18.512
455 4 1 29.4014 21.7788 17.423
456 4 3 30.4903 21.7788 18.512
457 4 2 29.4014 20.6899 16.3341
458 4 1 30.4903 20.6899 15.2452
459 4 3 29.4014 21.7788 15.2452
460 4 2 31.5793 20.6899 16.3341
461 4 1 30.4903 21.7788 16.3341
462 4 3 30.4903 22.8677 15.2452
463 4 2 31.5793 21.7788 17.423
464 4 1 30.4903 20.6899 17.423
465 4 3 31.5793 19.6009 17.423
466 4 2 31.5793 20.6899 18.512
467 4 1 32.6682 20.6899 17.423
468 4 3 33.7571 21.7788 17.423
469 4 2 32.6682 21.7788 18.512
470 4 1 32.6682 20.6899 19.6009
471 4 3 33.7571 21.7788 19.6009
472 4 2 33.7571 19.6009 19.6009
473 4 1 33.7571 20.6899 18.512
474 4 3 34.8461 20.6899 17.423
475 4 2 33.7571 19.6009 17.423
476 4 1 32.6682 18.512 17.423
477 4 3 31.5793 17.423 17.423
478 4 2 32.6682 17.423 18.512
479 4 2 33.7571 18.512 18.512
480 4 3 34.8461 17.423 18.512
481 5 3 2.17788 25.0456 34.8461
482 5 1 3.26682 26.1346 34.8461
483 5 3 4.35576 27.2235 34.8461
484 5 2 2.17788 26.1346 33.7571
485 5 1 2.17788 25.0456 32.6682
486 5 3 2.17788 26.1346 31.5793
487 5 2 1.08894 23.9567 32.6682
488 5 1 0 23.9567 33.7571
489 5 3 -1.08894 25.0456 33.7571
490 5 2 0 25.0456 32.6682
491 5 1 0 26.1346 33.7571
492 5 3 1.08894 26.1346 34.8461
493 5 2 -1.08894 26.1346 32.6682
494 5 1 -2.17788 27.2235 32.6682
495 5 3 -3.26682 27.2235 33.7571
496 5 2 -2.17788 26.1346 33.7571
497 5 1 -3.26682 26.1346 32.6682
498 5 3 -3.26682 25.0456 31.5793
499 5 2 -3.26682 25.0456 33.7571
500 5 1 -4.35576 25.0456 32.6682
501 5 3 -4.35576 26.1346 33.7571
502 5 2 -4.35576 23.9567 31.5793
503 5 1 -3.26682 23.9567 30.4903
504 5 3 -4.35576 23.9567 29.4014
505 5 2 -2.17788 23.9567 29.4014
506 5 1 -2.17788 22.8677 28.3124
507 5 3 -3.26682 22.8677 27.2235
508 5 2 -3.26682 22.8677 29.4014
509 5 1 -2.17788 21.7788 29.4014
510 5 3 -3.26682 21.7788 28.3124
511 5 2 -2.17788 20.6899 28.3124
512 5 1 -2.17788 21.7788 27.2235
513 5 3 -1.08894 21.7788 26.1346
514 5 2 -2.17788 22.8677 26.1346
515 5 1 -2.17788 23.9567 25.0456
516 5 3 -3.26682 22.8677 25.0456
517 5 2 -2.17788 22.8677 23.9567
518 5 1 -2.17788 21.7788 22.8677
519 5 3 -3.26682 21.7788 23.9567
520 5 2 -2.17788 22.8677 21.7788
521 5 1 -1.08894 23.9567 21.7788
522 5 3 -1.08894 22.8677 22.8677
523 5 2 0 23.9567 20.6899
524 5 1 1.08894 23.9567 19.6009
525 5 3 1.08894 25.0456 20.6899
526 5 2 2.17788 25.0456 19.6009
527 5 1 3.26682 25.0456 20.6899
528 5 3 4.35576 25.0456 21.7788
529 5 2 2.17788 26.1346 20.6899
530 5 1 1.08894 26.1346 21.7788
531 5 3 0 25.0456 21.7788
532 5 2 0 26.1346 22.8677
533 5 1 -1.08894 26.1346 23.9567
534 5 3 -2.17788 26.1346 22.8677
535 5 2 0 26.1346 25.0456
536 5 1 -1.08894 25.0456 25.0456
537 5 3 -1.08894 23.9567 26.1346
538 5 2 0 23.9567 25.0456
539 5 1 1.08894 23.9567 23.9567
540 5 3 2.17788 22.8677 23.9567
541 5 2 1.08894 22.8677 22.8677
542 5 1 0 22.8677 23.9567
543 5 3 0 21.7788 22.8677
544 5 2 0 23.9567 22.8677
545 5 1 0 25.0456 23.9567
546 5 3 1.08894 25.0456 22.8677
547 5 2 -1.08894 25.0456 22.8677
548 5 1 -1.08894 23.9567 23.9567
549 5 3 -1.08894 22.8677 25.0456
550 5 2 -2.17788 25.0456 23.9567
551 5 1 -3.26682 25.0456 22.8677
552 5 3 -3.26682 23.9567 21.7788
553 5 2 -4.35576 23.9567 22.8677
554 5 1 -4.35576 25.0456 21.7788
555 5 3 -4.35576 26.1346 20.6899
556 5 2 -5.4447 23.9567 21.7788
557 5 1 -6.53364 23.9567 22.8677
558 5 3 -6.53364 22.8677 21.7788
559 5 2 -7.62258 25.0456 22.8677
560 5 1 -8.71152 23.9567 22.8677
561 5 3 -9.80046 22.8677 22.8677
562 5 2 -7.62258 23.9567 23.9567
563 5 1 -7.62258 22.8677 22.8677
564 5 3 -6.53364 21.7788 22.8677
565 5 2 -6.53364 22.8677 23.9567
566 5 1 -6.53364 21.7788 25.0456
567 5 3 -5.4447 22.8677 25.0456
568 5 2 -7.62258 21.7788 26.1346
569 5 1 -6.53364 21.7788 27.2235
570 5 3 -7.62258 22.8677 27.2235
571 5 2 -7.62258 21.7788 28.3124
572 5 1 -8.71152 21.7788 27.2235
573 5 3 -7.62258 20.6899 27.2235
574 5 2 -8.71152 22.8677 26.1346
575 5 1 -7.62258 22.8677 25.0456
576 5 3 -6.53364 23.9567 25.0456
577 5 2 -8.71152 22.8677 23.9567
578 5 1 -9.80046 21.7788 23.9567
579 5 3 -8.71152 21.7788 25.0456
580 5 2 -10.8894 21.7788 25.0456
581 5 1 -10.8894 22.8677 26.1346
582 5 3 -9.80046 22.8677 25.0456
583 5 2 -10.8894 23.9567 25.0456
584 5 1 -9.80046 23.9567 23.9567
585 5 3 -10.8894 23.9567 22.8677
586 5 2 -8.71152 25.0456 23.9567
587 5 1 -9.80046 26.1346 23.9567
588 5 3 -10.8894 26.1346 22.8677
589 5 2 -9.80046 27.2235 22.8677
590 5 1 -8.71152 27.2235 21.7788
591 5 3 -8.71152 26.1346 22.8677
592 5 2 -9.80046 27.2235 20.6899
593 5 1 -8.71152 28.3124 20.6899
594 5 3 -7.62258 29.4014 20.6899
595 5 2 -9.80046 29.4014 20.6899
596 5 1 -10.8894 29.4014 19.6009
597 5 3 -10.8894 30.4903 20.6899
598 5 2 -10.8894 30.4903 18.512
599 5 2 -11.9783 29.4014 18.512
600 5 3 -10.8894 29.4014 17.423
601 6 3 16.3341 18.512 20.6899
602 6 1 17.423 18.512 21.7788
603 6 3 18.512 18.512 22.8677
604 6 2 18.512 17.423 21.7788
605 6 1 18.512 16.3341 22.8677
606 6 3 17.423 16.3341 21.7788
607 6 2 17.423 17.423 22.8677
608 6 1 17.423 18.512 23.9567
609 6 3 17.423 19.6009 22.8677
610 6 2 16.3341 17.423 23.9567
611 6 1 16.3341 16.3341 22.8677
612 6 3 17.423 16.3341 23.9567
613 6 2 16.3341 17.423 21.7788
614 6 1 15.2452 17.423 22.8677
615 6 3 14.1562 16.3341 22.8677
616 6 2 15.2452 16.3341 21.7788
617 6 1 15.2452 15.2452 22.8677
618 6 3 15.2452 14.1562 23.9567
619 6 2 15.2452 14.1562 21.7788
620 6 1 15.2452 15.2452 20.6899
621 6 3 16.3341 16.3341 20.6899
622 6 2 14.1562 15.2452 19.6009
623 6 1 14.1562 16.3341 20.6899
624 6 3 13.0673 17.423 20.6899
625 6 2 13.0673 15.2452 20.6899
626 6 1 11.9783 16.3341 20.6899
627 6 3 10.8894 16.3341 21.7788
628 6 2 10.8894 17.423 20.6899
629 6 1 10.8894 18.512 21.7788
630 6 3 10.8894 17.423 22.8677
631 6 2 9.80046 18.512 22.8677
632 6 1 9.80046 17.423 23.9567
633 6 3 8.71152 17.423 22.8677
634 6 2 8.71152 16.3341 23.9567
635 6 1 7.62258 16.3341 22.8677
636 6 3 7.62258 17.423 23.9567
637 6 2 7.62258 15.2452 21.7788
638 6 1 7.62258 14.1562 20.6899
639 6 3 7.62258 13.0673 21.7788
640 6 2 8.71152 13.0673 20.6899
641 6 1 8.71152 11.9783 19.6009
642 6 3 7.62258 13.0673 19.6009
643 6 2 9.80046 13.0673 19.6009
644 6 1 8.71152 13.0673 18.512
645 6 3 9.80046 13.0673 17.423
646 6 2 8.71152 11.9783 17.423
647 6 1 8.71152 10.8894 18.512
648 6 3 9.80046 10.8894 19.6009
649 6 2 7.62258 9.80046 18.512
650 6 1 7.62258 10.8894 17.423
651 6 3 6.53364 9.80046 17.423
652 6 2 8.71152 10.8894 16.3341
653 6 1 9.80046 10.8894 15.2452
654 6 3 8.71152 9.80046 15.2452
655 6 2 10.8894 10.8894 16.3341
656 6 1 10.8894 9.80046 15.2452
657 6 3 9.80046 9.80046 14.1562
658 6 2 10.8894 8.71152 16.3341
659 6 1 10.8894 9.80046 17.423
660 6 3 10.8894 8.71152 18.512
661 6 2 11.9783 10.8894 17.423
662 6 1 11.9783 9.80046 16.3341
663 6 3 11.9783 10.8894 15.2452
664 6 2 13.0673 9.80046 17.423
665 6 1 13.0673 8.71152 16.3341
666 6 3 13.0673 7.62258 17.423
667 6 2 14.1562 7.62258 16.3341
668 6 1 15.2452 8.71152 16.3341
669 6 3 14.1562 9.80046 16.3341
670 6 2 16.3341 8.71152 17.423
671 6 1 15.2452 8.71152 18.512
672 6 3 15.2452 9.80046 17.423
673 6 2 14.1562 8.71152 17.423
674 6 1 14.1562 7.62258 18.512
675 6 3 15.2452 7.62258 17.423
676 6 2 14.1562 8.71152 19.6009
677 6 1 15.2452 7.62258 19.6009
678 6 3 16.3341 7.62258 20.6899
679 6 2 14.1562 7.62258 20.6899
680 6 1 15.2452 8.71152 20.6899
681 6 3 14.1562 9.80046 20.6899
682 6 2 16.3341 9.80046 20.6899
683 6 1 15.2452 9.80046 19.6009
684 6 3 15.2452 10.8894 20.6899
685 6 2 16.3341 9.80046 18.512
686 6 1 15.2452 10.8894 18.512
687 6 3 16.3341 10.8894 17.423
688 6 2 16.3341 11.9783 18.512
689 6 1 16.3341 13.0673 19.6009
690 6 3 16.3341 14.1562 18.512
691 6 2 17.423 13.0673 20.6899
692 6 1 16.3341 11.9783 20.6899
693 6 3 16.3341 13.0673 21.7788
694 6 2 15.2452 11.9783 21.7788
695 6 1 15.2452 13.0673 20.6899
696 6 3 14.1562 11.9783 20.6899
697 6 2 16.3341 14.1562 20.6899
698 6 1 16.3341 15.2452 21.7788
699 6 3 17.423 15.2452 20.6899
700 6 2 16.3341 14.1562 22.8677
701 6 1 16.3341 13.0673 23.9567
702 6 3 16.3341 11.9783 22.8677
703 6 2 17.423 11.9783 23.9567
704 6 1 17.423 10.8894 22.8677
705 6 3 16.3341 10.8894 21.7788
706 6 2 16.3341 10.8894 23.9567
707 6 1 17.423 10.8894 25.0456
708 6 3 16.3341 9.80046 25.0456
709 6 2 16.3341 11.9783 25.0456
710 6 1 16.3341 10.8894 26.1346
711 6 3 16.3341 11.9783 27.2235
712 6 2 17.423 10.8894 27.2235
713 6 1 17.423 11.9783 28.3124
714 6 3 18.512 10.8894 28.3124
715 6 2 18.512 11.9783 29.4014
716 6 1 19.6009 10.8894 29.4014
717 6 3 19.6009 9.80046 28.3124
718 6 2 19.6009 9.80046 30.4903
719 6 2 18.512 8.71152 30.4903
720 6 3 19.6009 8.71152 31.5793
721 7 3 23.9567 11.9783 30.4903
722 7 1 25.0456 13.0673 30.4903
723 7 3 23.9567 13.0673 29.4014
724 7 2 25.0456 11.9783 29.4014
725 7 1 25.0456 10.8894 30.4903
726 7 3 23.9567 9.80046 30.4903
727 7 2 23.9567 10.8894 31.5793
728 7 1 23.9567 9.80046 32.6682
729 7 3 23.9567 8.71152 31.5793
730 7 2 25.0456 9.80046 31.5793
731 7 1 25.0456 8.71152 30.4903
732 7 3 25.0456 7.62258 29.4014
733 7 2 26.1346 8.71152 29.4014
734 7 1 25.0456 9.80046 29.4014
735 7 3 25.0456 8.71152 28.3124
736 7 2 26.1346 9.80046 30.4903
737 7 1 26.1346 10.8894 29.4014
738 7 3 27.2235 10.8894 30.4903
739 7 2 27.2235 10.8894 28.3124
740 7 1 28.3124 10.8894 27.2235
741 7 3 29.4014 10.8894 28.3124
742 7 2 29.4014 11.9783 27.2235
743 7 1 30.4903 10.8894 27.2235
744 7 3 30.4903 9.80046 28.3124
745 7 2 30.4903 11.9783 28.3124
746 7 1 31.5793 11.9783 27.2235
747 7 3 32.6682 11.9783 26.1346
748 7 2 31.5793 13.0673 28.3124
749 7 1 31.5793 14.1562 29.4014
750 7 3 32.6682 13.0673 29.4014
751 7 2 30.4903 14.1562 30.4903
752 7 1 31.5793 15.2452 30.4903
753 7 3 32.6682 15.2452 29.4014
754 7 2 31.5793 16.3341 29.4014
755 7 1 32.6682 16.3341 30.4903
756 7 3 33.7571 16.3341 29.4014
757 7 2 33.7571 15.2452 30.4903
758 7 1 34.8461 16.3341 30.4903
759 7 3 35.935 16.3341 31.5793
760 7 2 34.8461 15.2452 29.4014
761 7 1 34.8461 16.3341 28.3124
762 7 3 35.935 15.2452 28.3124
763 7 2 34.8461 17.423 27.2235
764 7 1 34.8461 16.3341 26.1346
765 7 3 35.935 16.3341 25.0456
766 7 2 33.7571 17.423 26.1346
767 7 1 33.7571 18.512 25.0456
768 7 3 32.6682 18.512 23.9567
769 7 2 33.7571 17.423 23.9567
770 7 1 34.8461 18.512 23.9567
771 7 3 35.935 18.512 25.0456
772 7 2 35.935 17.423 23.9567
773 7 1 35.935 16.3341 22.8677
774 7 3 35.935 15.2452 23.9567
775 7 2 35.935 15.2452 21.7788
776 7 1 35.935 14.1562 22.8677
777 7 3 37.024 14.1562 21.7788
778 7 2 35.935 13.0673 21.7788
779 7 1 35.935 11.9783 22.8677
780 7 3 35.935 10.8894 23.9567
781 7 2 34.8461 11.9783 23.9567
782 7 1 34.8461 10.8894 25.0456
783 7 3 35.935 11.9783 25.0456
784 7 2 33.7571 9.80046 25.0456
785 7 1 32.6682 10.8894 25.0456
786 7 3 31.5793 11.9783 25.0456
787 7 2 32.6682 9.80046 23.9567
788 7 1 31.5793 9.80046 22.8677
789 7 3 30.4903 10.8894 22.8677
790 7 2 30.4903 8.71152 22.8677
791 7 1 31.5793 7.62258 22.8677
792 7 3 31.5793 6.53364 21.7788
793 7 2 30.4903 6.53364 22.8677
794 7 1 29.4014 6.53364 23.9567
795 7 3 30.4903 5.4447 23.9567
796 7 2 28.3124 6.53364 25.0456
797 7 1 29.4014 5.4447 25.0456
798 7 3 30.4903 4.35576 25.0456
799 7 2 28.3124 5.4447 26.1346
800 7 1 28.3124 6.53364 27.2235
801 7 3 27.2235 5.4447 27.2235
802 7 2 29.4014 7.62258 27.2235
803 7 1 29.4014 6.53364 26.1346
804 7 3 29.4014 7.62258 25.0456
805 7 2 30.4903 5.4447 26.1346
806 7 1 30.4903 6.53364 27.2235
807 7 3 31.5793 5.4447 27.2235
808 7 2 30.4903 7.62258 28.3124
809 7 1 29.4014 6.53364 28.3124
810 7 3 30.4903 5.4447 28.3124
811 7 2 29.4014 5.4447 27.2235
812 7 1 29.4014 4.35576 26.1346
813 7 3 28.3124 4.35576 25.0456
814 7 2 30.4903 4.35576 27.2235
815 7 1 30.4903 3.26682 26.1346
816 7 3 30.4903 2.17788 27.2235
817 7 2 31.5793 3.26682 25.0456
818 7 1 31.5793 2.17788 23.9567
819 7 3 30.4903 3.26682 23.9567
820 7 2 31.5793 3.26682 22.8677
821 7 1 31.5793 4.35576 23.9567
822 7 3 31.5793 5.4447 22.8677
823 7 2 32.6682 3.26682 23.9567
824 7 1 33.7571 3.26682 22.8677
825 7 3 33.7571 4.35576 21.7788
826 7 2 34.8461 4.35576 22.8677
827 7 1 34.8461 5.4447 23.9567
828 7 3 33.7571 4.35576 23.9567
829 7 2 34.8461 6.53364 25.0456
830 7 1 33.7571 6.53364 26.1346
831 7 3 32.6682 7.62258 26.1346
832 7 2 32.6682 6.53364 27.2235
833 7 1 32.6682 7.62258 28.3124
834 7 3 33.7571 7.62258 29.4014
835 7 2 31.5793 7.62258 29.4014
836 7 1 30.4903 7.62258 30.4903
837 7 3 30.4903 6.53364 29.4014
838 7 2 30.4903 8.71152 29.4014
839 7 2 31.5793 8.71152 28.3124
840 7 3 31.5793 7.62258 27.2235
841 8 3 1.08894 7.62258 35.935
842 8 1 2.17788 6.53364 35.935
843 8 3 3.26682 5.4447 35.935
844 8 2 1.08894 6.53364 37.024
845 8 1 0 5.4447 37.024
846 8 3 1.08894 5.4447 35.935
847 8 2 0 6.53364 35.935
848 8 1 1.08894 6.53364 34.8461
849 8 3 0 7.62258 34.8461
850 8 2 2.17788 6.53364 33.7571
851 8 1 3.26682 5.4447 33.7571
852 8 3 3.26682 6.53364 32.6682
853 8 2 2.17788 5.4447 34.8461
854 8 1 3.26682 6.53364 34.8461
855 8 3 3.26682 7.62258 33.7571
856 8 2 3.26682 7.62258 35.935
857 8 1 3.26682 6.53364 37.024
858 8 3 2.17788 5.4447 37.024
859 8 2 4.35576 6.53364 38.1129
860 8 1 4.35576 7.62258 39.2018
861 8 3 5.4447 7.62258 40.2908
862 8 2 3.26682 7.62258 38.1129
863 8 1 3.26682 6.53364 39.2018
864 8 3 3.26682 5.4447 40.2908
865 8 2 4.35576 5.4447 39.2018
866 8 1 4.35576 4.35576 40.2908
867 8 3 4.35576 5.4447 41.3797
868 8 2 5.4447 3.26682 40.2908
869 8 1 6.53364 2.17788 40.2908
870 8 3 7.62258 2.17788 41.3797
871 8 2 7.62258 2.17788 39.2018
872 8 1 8.71152 3.26682 39.2018
873 8 3 9.80046 3.26682 38.1129
874 8 2 7.62258 3.26682 38.1129
875 8 1 7.62258 4.35576 37.024
876 8 3 7.62258 3.26682 35.935
877 8 2 8.71152 4.35576 38.1129
878 8 1 8.71152 5.4447 37.024
879 8 3 7.62258 6.53364 37.024
880 8 2 8.71152 4.35576 35.935
881 8 1 9.80046 3.26682 35.935
882 8 3 8.71152 3.26682 37.024
883 8 2 9.80046 4.35576 37.024
884 8 1 10.8894 4.35576 38.1129
885 8 3 10.8894 3.26682 37.024
886 8 2 9.80046 5.4447 38.1129
887 8 1 9.80046 4.35576 39.2018
888 8 3 8.71152 4.35576 40.2908
889 8 2 9.80046 5.4447 40.2908
890 8 1 8.71152 6.53364 40.2908
891 8 3 8.71152 7.62258 41.3797
892 8 2 7.62258 5.4447 40.2908
893 8 1 7.62258 6.53364 41.3797
894 8 3 7.62258 5.4447 42.4687
895 8 2 6.53364 6.53364 40.2908
896 8 1 6.53364 7.62258 39.2018
897 8 3 7.62258 8.71152 39.2018
898 8 2 6.53364 6.53364 38.1129
899 8 1 6.53364 7.62258 37.024
900 8 3 7.62258 7.62258 35.935
901 8 2 5.4447 7.62258 38.1129
902 8 1 5.4447 6.53364 37.024
903 8 3 4.35576 5.4447 37.024
904 8 2 5.4447 5.4447 35.935
905 8 1 5.4447 4.35576 34.8461
906 8 3 4.35576 4.35576 33.7571
907 8 2 6.53364 4.35576 33.7571
908 8 1 5.4447 3.26682 33.7571
909 8 3 5.4447 2.17788 34.8461
910 8 2 5.4447 4.35576 32.6682
911 8 1 6.53364 4.35576 31.5793
912 8 3 6.53364 3.26682 30.4903
913 8 2 7.62258 3.26682 31.5793
914 8 1 8.71152 3.26682 32.6682
915 8 3 8.71152 2.17788 31.5793
916 8 2 7.62258 2.17788 32.6682
917 8 1 7.62258 1.08894 33.7571
918 8 3 7.62258 0 32.6682
919 8 2 8.71152 1.08894 34.8461
920 8 1 8.71152 0 35.935
921 8 3 7.62258 -1.08894 35.935
922 8 2 9.80046 0 37.024
923 8 1 8.71152 -1.08894 37.024
924 8 3 7.62258 -2.17788 37.024
925 8 2 8.71152 -2.17788 38.1129
926 8 1 8.71152 -3.26682 37.024
927 8 3 9.80046 -4.35576 37.024
928 8 2 9.80046 -2.17788 37.024
929 8 1 10.8894 -2.17788 35.935
930 8 3 10.8894 -1.08894 34.8461
931 8 2 11.9783 -2.17788 37.024
932 8 1 11.9783 -1.08894 38.1129
933 8 3 10.8894 0 38.1129
934 8 2 11.9783 0 37.024
935 8 1 11.9783 1.08894 35.935
936 8 3 13.0673 1.08894 34.8461
937 8 2 13.0673 0 35.935
938 8 1 14.1562 1.08894 35.935
939 8 3 15.2452 1.08894 34.8461
940 8 2 14.1562 0 34.8461
941 8 1 14.1562 1.08894 33.7571
942 8 3 15.2452 1.08894 32.6682
943 8 2 14.1562 2.17788 34.8461
944 8 1 14.1562 3.26682 35.935